Nucleation running

157 atoms
57 bonds
0 angles
0 dihedrals
4 atom types
1 bond types
0 angle types
0 dihedral types

-100.0 100.0 xlo xhi
-100.0 100.0 ylo yhi
-100.0 100.0 zlo zhi


Masses

1 14.3991 # O
4 1.5999 # O shell
2 28.085 # Si
3 24.305 # Mg

Atoms

1 1 1 1.919810 -4.108572 3.324857 1.960561
2 1 4 -3.281110 -4.108572 3.324857 1.960561
3 1 1 1.919810 2.404389 -2.662037 0.311475
4 1 4 -3.281110 2.404389 -2.662037 0.311475
5 1 1 1.919810 -0.986378 -2.273075 -0.185542
6 1 4 -3.281110 -0.986378 -2.273075 -0.185542
7 1 1 1.919810 1.733531 2.010474 -0.029298
8 1 4 -3.281110 1.733531 2.010474 -0.029298
9 1 1 1.919810 0.586392 4.599404 0.831981
10 1 4 -3.281110 0.586392 4.599404 0.831981
11 1 1 1.919810 -1.035803 -5.018784 -3.749161
12 1 4 -3.281110 -1.035803 -5.018784 -3.749161
13 1 1 1.919810 4.264035 0.289627 2.072061
14 1 4 -3.281110 4.264035 0.289627 2.072061
15 1 1 1.919810 -3.032049 -0.543669 -1.869060
16 1 4 -3.281110 -3.032049 -0.543669 -1.869060
17 1 1 1.919810 -0.995462 1.121861 3.808548
18 1 4 -3.281110 -0.995462 1.121861 3.808548
19 1 1 1.919810 1.516748 0.237135 -4.712682
20 1 4 -3.281110 1.516748 0.237135 -4.712682
21 1 1 1.919810 2.137850 -5.311142 1.041946
22 1 4 -3.281110 2.137850 -5.311142 1.041946
23 1 1 1.919810 -2.856515 4.517265 -0.404609
24 1 4 -3.281110 -2.856515 4.517265 -0.404609
25 1 1 1.919810 -6.080469 -1.125729 1.622324
26 1 4 -3.281110 -6.080469 -1.125729 1.622324
27 1 1 1.919810 6.276288 1.008162 -0.557665
28 1 4 -3.281110 6.276288 1.008162 -0.557665
29 1 1 1.919810 -1.291985 0.879703 -0.593483
30 1 4 -3.281110 -1.291985 0.879703 -0.593483
31 1 1 1.919810 1.784763 -0.220433 0.927948
32 1 4 -3.281110 1.784763 -0.220433 0.927948
33 1 1 1.919810 -0.925819 -4.500474 -1.404464
34 1 4 -3.281110 -0.925819 -4.500474 -1.404464
35 1 1 1.919810 -1.110087 2.665301 1.496280
36 1 4 -3.281110 -1.110087 2.665301 1.496280
37 1 1 1.919810 3.415617 3.816314 0.207779
38 1 4 -3.281110 3.415617 3.816314 0.207779
39 1 1 1.919810 -3.237568 -3.710180 -1.398827
40 1 4 -3.281110 -3.237568 -3.710180 -1.398827
41 1 1 1.919810 4.854924 -2.542339 0.885945
42 1 4 -3.281110 4.854924 -2.542339 0.885945
43 1 1 1.919810 -5.243180 2.673161 -0.494339
44 1 4 -3.281110 -5.243180 2.673161 -0.494339
45 1 1 1.919810 -6.417550 1.818653 1.754375
46 1 4 -3.281110 -6.417550 1.818653 1.754375
47 1 1 1.919810 3.726633 -3.445767 -1.602258
48 1 4 -3.281110 3.726633 -3.445767 -1.602258
49 1 1 1.919810 -3.523919 -1.993448 0.526674
50 1 4 -3.281110 -3.523919 -1.993448 0.526674
51 1 1 1.919810 4.068017 2.167458 -1.446527
52 1 4 -3.281110 4.068017 2.167458 -1.446527
53 1 1 1.919810 -1.651176 5.020794 2.435561
54 1 4 -3.281110 -1.651176 5.020794 2.435561
55 1 1 1.919810 1.492210 -4.606279 -2.447103
56 1 4 -3.281110 1.492210 -4.606279 -2.447103
57 1 1 1.919810 2.079598 1.454405 2.915335
58 1 4 -3.281110 2.079598 1.454405 2.915335
59 1 1 1.919810 -0.955688 0.749094 -3.189050
60 1 4 -3.281110 -0.955688 0.749094 -3.189050
61 1 1 1.919810 6.359122 2.605454 1.410503
62 1 4 -3.281110 6.359122 2.605454 1.410503
63 1 1 1.919810 -6.031982 -3.160040 -0.128621
64 1 4 -3.281110 -6.031982 -3.160040 -0.128621
65 1 1 1.919810 -0.576682 -0.433710 1.720271
66 1 4 -3.281110 -0.576682 -0.433710 1.720271
67 1 1 1.919810 1.971825 1.513805 -2.430521
68 1 4 -3.281110 1.971825 1.513805 -2.430521
69 1 1 1.919810 0.209704 -5.746558 2.951663
70 1 4 -3.281110 0.209704 -5.746558 2.951663
71 1 1 1.919810 -0.920531 6.149064 -1.596481
72 1 4 -3.281110 -0.920531 6.149064 -1.596481
73 1 1 1.919810 -5.671436 -0.800873 -1.049166
74 1 4 -3.281110 -5.671436 -0.800873 -1.049166
75 1 1 1.919810 7.020079 0.220045 1.748244
76 1 4 -3.281110 7.020079 0.220045 1.748244
77 1 1 1.919810 -3.206342 1.934143 -1.940130
78 1 4 -3.281110 -3.206342 1.934143 -1.940130
79 1 1 1.919810 2.489573 -1.308483 3.144491
80 1 4 -3.281110 2.489573 -1.308483 3.144491
81 1 1 1.919810 0.240931 -2.675097 -3.358550
82 1 4 -3.281110 0.240931 -2.675097 -3.358550
83 1 1 1.919810 0.706498 3.673657 3.104626
84 1 4 -3.281110 0.706498 3.673657 3.104626
85 1 1 1.919810 1.762191 3.917855 -1.946547
86 1 4 -3.281110 1.762191 3.917855 -1.946547
87 1 1 1.919810 -2.433676 -4.408187 0.908951
88 1 4 -3.281110 -2.433676 -4.408187 0.908951
89 1 1 1.919810 4.195982 -0.831768 -0.825614
90 1 4 -3.281110 4.195982 -0.831768 -0.825614
91 1 1 1.919810 -3.951459 1.052306 0.983200
92 1 4 -3.281110 -3.951459 1.052306 0.983200
93 1 1 1.919810 -0.967660 3.622404 -1.834306
94 1 4 -3.281110 -0.967660 3.622404 -1.834306
95 1 1 1.919810 0.330712 -3.479649 2.078567
96 1 4 -3.281110 0.330712 -3.479649 2.078567
97 1 1 1.919810 2.069781 -0.928330 -2.553351
98 1 4 -3.281110 2.069781 -0.928330 -2.553351
99 1 1 1.919810 -2.810243 -0.275466 2.917707
100 1 4 -3.281110 -2.810243 -0.275466 2.917707
101 1 3 1.361300 -4.300955 -0.726626 1.877299
102 1 3 1.361300 5.199418 2.985236 -0.039362
103 1 3 1.361300 -3.196618 4.925022 1.411736
104 1 3 1.361300 2.295543 -4.717868 -0.687255
105 1 3 1.361300 0.215983 1.156880 0.793810
106 1 3 1.361300 -4.695060 0.790245 -1.113258
107 1 3 1.361300 5.596306 -0.634498 0.711833
108 1 3 1.361300 -2.563572 -5.023418 -2.689811
109 1 3 1.361300 2.167274 3.387521 1.610148
110 1 3 1.361300 -1.950876 2.749419 -0.279908
111 1 3 1.361300 0.680545 -1.981873 0.880349
112 1 3 1.361300 -7.479810 0.317982 1.525843
113 1 3 1.361300 -4.394321 -3.693904 0.635432
114 1 3 1.361300 5.143738 0.691485 -2.085655
115 1 3 1.361300 -2.617009 1.874248 2.588592
116 1 3 1.361300 2.400611 -2.755029 -2.901447
117 1 3 1.361300 1.039159 -2.451053 3.783961
118 1 3 1.361300 0.354788 2.536815 -2.746775
119 1 3 1.361300 5.723332 1.318414 2.698878
120 1 3 1.361300 -4.162825 -1.970240 -1.425306
121 1 3 1.361300 -2.041910 -0.747265 0.371574
122 1 3 1.361300 2.440276 0.178070 -0.852968
123 1 3 1.361300 -1.238609 -4.665609 2.351608
124 1 3 1.361300 0.638698 5.157701 -0.982983
125 1 3 1.361300 0.611582 2.015255 3.946194
126 1 3 1.361300 0.170157 -0.796084 -3.714048
127 1 3 1.361300 3.541301 -2.887365 2.315103
128 1 3 1.361300 -4.245261 3.657877 -1.835604
129 1 2 2.722600 -5.068776 2.321980 1.103514
130 1 2 2.722600 3.846712 -2.379989 -0.402865
131 1 2 2.722600 -1.838628 -3.582435 -0.398029
132 1 2 2.722600 2.682486 2.933754 -1.061516
133 1 2 2.722600 -0.406280 4.164310 2.010656
134 1 2 2.722600 0.004131 -4.187129 -2.878338
135 1 2 2.722600 2.668799 0.070143 2.286222
136 1 2 2.722600 -2.084171 0.737509 -2.082866
137 1 2 2.722600 7.416607 1.433577 0.633993
138 1 2 2.722600 -6.563806 -1.644515 0.091216
139 1 2 2.722600 -1.223503 -0.410837 3.258754
140 1 2 2.722600 2.565895 0.405712 -3.545321
141 1 2 2.722600 1.389816 -4.854371 2.351936
142 1 2 2.722600 -1.956803 5.001593 -1.841834
143 1 1 1.919810 8.788331 1.837697 0.257753
144 1 4 -3.281110 8.788331 1.837697 0.257753
145 1 1 1.919810 -8.023788 -1.034106 0.191596
146 1 4 -3.281110 -8.023788 -1.034106 0.191596
147 1 1 1.919810 -0.594371 -1.574702 4.117745
148 1 4 -3.281110 -0.594371 -1.574702 4.117745
149 1 1 1.919810 4.132991 0.354363 -3.656243
150 1 4 -3.281110 4.132991 0.354363 -3.656243
151 1 1 1.919810 2.362467 -3.995671 3.373647
152 1 4 -3.281110 2.362467 -3.995671 3.373647
153 1 1 1.919810 -3.190797 4.939200 -2.821777
154 1 4 -3.281110 -3.190797 4.939200 -2.821777
155 2 2 2.722600 -6.758803 1.483558 7.243123
156 2 1 1.919810 -5.278042 1.304786 7.453451
157 2 4 -3.281110 -5.278042 1.304786 7.453451

Bonds

1 1 1 2
2 1 3 4
3 1 5 6
4 1 7 8
5 1 9 10
6 1 11 12
7 1 13 14
8 1 15 16
9 1 17 18
10 1 19 20
11 1 21 22
12 1 23 24
13 1 25 26
14 1 27 28
15 1 29 30
16 1 31 32
17 1 33 34
18 1 35 36
19 1 37 38
20 1 39 40
21 1 41 42
22 1 43 44
23 1 45 46
24 1 47 48
25 1 49 50
26 1 51 52
27 1 53 54
28 1 55 56
29 1 57 58
30 1 59 60
31 1 61 62
32 1 63 64
33 1 65 66
34 1 67 68
35 1 69 70
36 1 71 72
37 1 73 74
38 1 75 76
39 1 77 78
40 1 79 80
41 1 81 82
42 1 83 84
43 1 85 86
44 1 87 88
45 1 89 90
46 1 91 92
47 1 93 94
48 1 95 96
49 1 97 98
50 1 99 100
51 1 143 144
52 1 145 146
53 1 147 148
54 1 149 150
55 1 151 152
56 1 153 154
57 1 156 157

Velocities

1 0.000000 0.000000 0.000000
2 0.000000 0.000000 0.000000
3 0.000000 0.000000 0.000000
4 0.000000 0.000000 0.000000
5 0.000000 0.000000 0.000000
6 0.000000 0.000000 0.000000
7 0.000000 0.000000 0.000000
8 0.000000 0.000000 0.000000
9 0.000000 0.000000 0.000000
10 0.000000 0.000000 0.000000
11 0.000000 0.000000 0.000000
12 0.000000 0.000000 0.000000
13 0.000000 0.000000 0.000000
14 0.000000 0.000000 0.000000
15 0.000000 0.000000 0.000000
16 0.000000 0.000000 0.000000
17 0.000000 0.000000 0.000000
18 0.000000 0.000000 0.000000
19 0.000000 0.000000 0.000000
20 0.000000 0.000000 0.000000
21 0.000000 0.000000 0.000000
22 0.000000 0.000000 0.000000
23 0.000000 0.000000 0.000000
24 0.000000 0.000000 0.000000
25 0.000000 0.000000 0.000000
26 0.000000 0.000000 0.000000
27 0.000000 0.000000 0.000000
28 0.000000 0.000000 0.000000
29 0.000000 0.000000 0.000000
30 0.000000 0.000000 0.000000
31 0.000000 0.000000 0.000000
32 0.000000 0.000000 0.000000
33 0.000000 0.000000 0.000000
34 0.000000 0.000000 0.000000
35 0.000000 0.000000 0.000000
36 0.000000 0.000000 0.000000
37 0.000000 0.000000 0.000000
38 0.000000 0.000000 0.000000
39 0.000000 0.000000 0.000000
40 0.000000 0.000000 0.000000
41 0.000000 0.000000 0.000000
42 0.000000 0.000000 0.000000
43 0.000000 0.000000 0.000000
44 0.000000 0.000000 0.000000
45 0.000000 0.000000 0.000000
46 0.000000 0.000000 0.000000
47 0.000000 0.000000 0.000000
48 0.000000 0.000000 0.000000
49 0.000000 0.000000 0.000000
50 0.000000 0.000000 0.000000
51 0.000000 0.000000 0.000000
52 0.000000 0.000000 0.000000
53 0.000000 0.000000 0.000000
54 0.000000 0.000000 0.000000
55 0.000000 0.000000 0.000000
56 0.000000 0.000000 0.000000
57 0.000000 0.000000 0.000000
58 0.000000 0.000000 0.000000
59 0.000000 0.000000 0.000000
60 0.000000 0.000000 0.000000
61 0.000000 0.000000 0.000000
62 0.000000 0.000000 0.000000
63 0.000000 0.000000 0.000000
64 0.000000 0.000000 0.000000
65 0.000000 0.000000 0.000000
66 0.000000 0.000000 0.000000
67 0.000000 0.000000 0.000000
68 0.000000 0.000000 0.000000
69 0.000000 0.000000 0.000000
70 0.000000 0.000000 0.000000
71 0.000000 0.000000 0.000000
72 0.000000 0.000000 0.000000
73 0.000000 0.000000 0.000000
74 0.000000 0.000000 0.000000
75 0.000000 0.000000 0.000000
76 0.000000 0.000000 0.000000
77 0.000000 0.000000 0.000000
78 0.000000 0.000000 0.000000
79 0.000000 0.000000 0.000000
80 0.000000 0.000000 0.000000
81 0.000000 0.000000 0.000000
82 0.000000 0.000000 0.000000
83 0.000000 0.000000 0.000000
84 0.000000 0.000000 0.000000
85 0.000000 0.000000 0.000000
86 0.000000 0.000000 0.000000
87 0.000000 0.000000 0.000000
88 0.000000 0.000000 0.000000
89 0.000000 0.000000 0.000000
90 0.000000 0.000000 0.000000
91 0.000000 0.000000 0.000000
92 0.000000 0.000000 0.000000
93 0.000000 0.000000 0.000000
94 0.000000 0.000000 0.000000
95 0.000000 0.000000 0.000000
96 0.000000 0.000000 0.000000
97 0.000000 0.000000 0.000000
98 0.000000 0.000000 0.000000
99 0.000000 0.000000 0.000000
100 0.000000 0.000000 0.000000
101 0.000000 0.000000 0.000000
102 0.000000 0.000000 0.000000
103 0.000000 0.000000 0.000000
104 0.000000 0.000000 0.000000
105 0.000000 0.000000 0.000000
106 0.000000 0.000000 0.000000
107 0.000000 0.000000 0.000000
108 0.000000 0.000000 0.000000
109 0.000000 0.000000 0.000000
110 0.000000 0.000000 0.000000
111 0.000000 0.000000 0.000000
112 0.000000 0.000000 0.000000
113 0.000000 0.000000 0.000000
114 0.000000 0.000000 0.000000
115 0.000000 0.000000 0.000000
116 0.000000 0.000000 0.000000
117 0.000000 0.000000 0.000000
118 0.000000 0.000000 0.000000
119 0.000000 0.000000 0.000000
120 0.000000 0.000000 0.000000
121 0.000000 0.000000 0.000000
122 0.000000 0.000000 0.000000
123 0.000000 0.000000 0.000000
124 0.000000 0.000000 0.000000
125 0.000000 0.000000 0.000000
126 0.000000 0.000000 0.000000
127 0.000000 0.000000 0.000000
128 0.000000 0.000000 0.000000
129 0.000000 0.000000 0.000000
130 0.000000 0.000000 0.000000
131 0.000000 0.000000 0.000000
132 0.000000 0.000000 0.000000
133 0.000000 0.000000 0.000000
134 0.000000 0.000000 0.000000
135 0.000000 0.000000 0.000000
136 0.000000 0.000000 0.000000
137 0.000000 0.000000 0.000000
138 0.000000 0.000000 0.000000
139 0.000000 0.000000 0.000000
140 0.000000 0.000000 0.000000
141 0.000000 0.000000 0.000000
142 0.000000 0.000000 0.000000
143 0.000000 0.000000 0.000000
144 0.000000 0.000000 0.000000
145 0.000000 0.000000 0.000000
146 0.000000 0.000000 0.000000
147 0.000000 0.000000 0.000000
148 0.000000 0.000000 0.000000
149 0.000000 0.000000 0.000000
150 0.000000 0.000000 0.000000
151 0.000000 0.000000 0.000000
152 0.000000 0.000000 0.000000
153 0.000000 0.000000 0.000000
154 0.000000 0.000000 0.000000
155 1.110652 -0.471446 -1.768869
156 1.110652 -0.471446 -1.768869
157 1.110652 -0.471446 -1.768869
